24
Properties=species:S:1:pos:R:3:forces:R:3:charge:R:1 energy=-18526.680602776385 pbc="F F F"
C       -3.24598000      -1.13535000       0.03280000      -0.20551240      -0.38236094       0.00770281      -0.11610708
N       -2.26635000      -0.07913000       0.00424000      -1.12356472       1.11716962      -0.06881204      -0.05554708
C       -2.52224000       1.26667000      -0.00684000       0.46875620      -1.06947613       0.03797096       0.06453325
N       -1.40901000       1.97386000      -0.00991000       0.36295736       0.19223678      -0.01027623      -0.44598919
C       -0.41465000       1.04188000      -0.00390000      -0.03165527       0.55944407      -0.01008294       0.21772443
C       -0.90883000      -0.22681000      -0.00072000       0.19516650       0.53727460       0.02882569       0.03464475
C       -0.08496000      -1.38464000       0.00294000      -0.70179617      -0.90232724       0.01134297       0.40453479
O       -0.54245000      -2.52372000       0.00300000       0.68149137       0.28809792       0.00201875      -0.50265372
N        1.27753000      -1.07858000       0.00884000      -0.39692515       0.18343039      -0.01213129      -0.14378077
C        1.82883000       0.21929000       0.00635000       1.10665965       0.61383760      -0.00224701       0.43595031
O        3.05203000       0.38761000       0.00786000      -1.63894677      -0.32908851       0.00541286      -0.49860707
N        0.93675000       1.29234000       0.00259000       0.65618080      -0.72017330       0.01384707      -0.13341482
C        1.42804000       2.65774000       0.00996000       0.11883372       0.52738917       0.00144582      -0.13122270
C        2.22356000      -2.17683000       0.02198000       0.91411316      -0.36192745       0.01562255      -0.15293634
H       -4.24963000      -0.70415000       0.00614000       0.35163057      -0.03091130       0.00869704       0.09875301
H       -3.11340000      -1.70485000       0.95646000      -0.13326511      -0.08798896      -0.30920941       0.09381732
H       -3.09644000      -1.77493000      -0.84056000      -0.10845783      -0.04428703       0.31437629       0.09452324
H       -3.52582000       1.67408000      -0.00973000       0.26096711      -0.19379818       0.00306482       0.15101840
H        2.52041000       2.69722000       0.03772000      -0.36053020      -0.39662534      -0.01739766       0.10829858
H        1.03996000       3.17404000       0.89377000       0.03201222      -0.04596957      -0.27305004       0.08939861
H        1.08360000       3.16741000      -0.89524000       0.02546704      -0.02824585       0.26647294       0.08932531
H        1.73380000      -3.15366000       0.02338000      -0.26449433       0.57206035      -0.00765116       0.10820335
H        2.85081000      -2.09344000       0.91559000      -0.09888146      -0.00308812      -0.28121531       0.09464234
H        2.86702000      -2.10317000      -0.86073000      -0.11020484       0.00532798       0.27527255       0.09489120
